ITEM: TIMESTEP
0
ITEM: NUMBER OF ATOMS
16
ITEM: BOX BOUNDS pp pp pp
0.0000000000000000e+000 5.7400000000000002e+000
0.0000000000000000e+000 5.7400000000000002e+000
0.0000000000000000e+000 5.7400000000000002e+000
ITEM: ATOMS id type xsu ysu zsu fx fy fz 
1 1                    0                    0                    0    0.428689184924282  -0.0449129269212147   -0.044912926921217 
2 1    0.598432055749129                 0.25                 0.25    -875.062338167286 -1.12843762112291e-015 -1.16790258020139e-015 
3 1                    0                  0.5                    0    0.428689184924283   0.0449129269212119  -0.0449129269212164 
4 1                 0.25                 0.75                 0.25  -0.0810211201045996 1.03389519168218e-015 -3.15101677389462e-015 
5 1                  0.5                    0                    0    -1.63817037037982    -2.99247283575195    -2.99247283575195 
6 1                 0.75                 0.25                 0.25     880.076059455165 -5.13478148889135e-016 -5.34294830600857e-016 
7 1                  0.5                  0.5                    0    -1.63817037037982     2.99247283575195    -2.99247283575195 
8 1                 0.75                 0.75                 0.25  0.00985003677863691 7.39555985895812e-015 -5.48172618408671e-016 
9 1                    0                    0                  0.5    0.428689184924282  -0.0449129269212158   0.0449129269212136 
10 1                 0.25                 0.25                 0.75  -0.0810211201045991 -3.09474668114262e-015 6.18949336228525e-015 
11 1 1.74216027874564e-016                  0.5                  0.5     0.42868918492427   0.0449129269212089   0.0449129269212096 
12 1                 0.25                 0.75                 0.75  -0.0247184054705053 6.93889390390723e-015 5.71764857681956e-015 
13 1                  0.5                    0                  0.5    -1.63817037037982    -2.99247283575195     2.99247283575195 
14 1                 0.75                 0.25                 0.75  0.00985003677863739 -1.52655665885959e-016 6.62013846519649e-015 
15 1                  0.5                  0.5                  0.5    -1.63817037037982     2.99247283575195     2.99247283575195 
16 1                 0.75                 0.75                 0.75 -0.00873597393474303 4.50724527145674e-015 4.45173412022548e-015 
ITEM: TIMESTEP
1
ITEM: NUMBER OF ATOMS
16
ITEM: BOX BOUNDS pp pp pp
0.0000000000000000e+000 5.7400000000000002e+000
0.0000000000000000e+000 5.7400000000000002e+000
0.0000000000000000e+000 5.7400000000000002e+000
ITEM: ATOMS id type xsu ysu zsu fx fy fz 
1 1 2.77852288618714e-005 -0.000244936524097739 0.000170469978288684    0.246568215895557   0.0765049361640804   0.0495660159824912 
2 1    0.585244983870045    0.250037339324876    0.249938885828778    -430.786101947578    0.792808124825598     0.59962367233974 
3 1 -0.000207541160825997    0.499747887992385 0.000193971531171044    0.262324480377765  -0.0530808063833269   0.0486389269590661 
4 1    0.249715381650649    0.750237014868958    0.250095147015969   0.0148708165721568 -0.00933608091931382  0.00417157834514249 
5 1    0.499893567017737 -0.000202554470092764 1.51052388003415e-005    -1.19267006448883    -2.52035116615535    -2.52846737042247 
6 1    0.763177310482786     0.24971348703923    0.249685422875236     434.803904756721   -0.779439309681996   -0.607927398058789 
7 1    0.499951676279094    0.500010883412415 -0.000175905489804498    -1.19823230630282     2.53121473717834    -2.52100030665021 
8 1    0.749907845767839    0.750048070678417     0.24980329864162  -0.0937454075567887 -0.00632652964820753   0.0161689411755498 
9 1 -6.64343284178769e-005 0.000190636548950351    0.500227605576749    0.250542005267422   0.0540167558292461  -0.0696214704512387 
10 1    0.250238287224267    0.250055130783494     0.75008193335163  -0.0139782274222338 0.000733356226919113 0.000240174787770629 
11 1 3.07606989368093e-005    0.499989269934645    0.499911102192677    0.242885161071703  -0.0622408630307358  -0.0566914683359703 
12 1    0.249983645175141    0.750211479004975     0.75012429637216  -0.0209496147027655  -0.0144957806227381  -0.0110540224921919 
13 1    0.500248481014642 0.000300040285651448    0.500022241194752    -1.21081249183723    -2.55733144219382     2.53892884873725 
14 1     0.75001916463671      0.2498691787182    0.749868577224701  -0.0917638000255351  0.00791388404941858   0.0124954322733221 
15 1    0.500147344954312    0.500025796475825     0.49990035078823    -1.20174217319246     2.54379822372477     2.53537048326709 
16 1     0.75011979723735    0.750011275926227    0.750137497679041  -0.0110994027988504 -0.00438803936289099  -0.0104420374565519 
ITEM: TIMESTEP
2
ITEM: NUMBER OF ATOMS
16
ITEM: BOX BOUNDS pp pp pp
0.0000000000000000e+000 5.7400000000000002e+000
0.0000000000000000e+000 5.7400000000000002e+000
0.0000000000000000e+000 5.7400000000000002e+000
ITEM: ATOMS id type xsu ysu zsu fx fy fz 
1 1 6.11035332118512e-005 -0.000472952124255244 0.000332165235799298    0.209039141816199   0.0270801700192179  -0.0249287211047695 
2 1    0.560270789677753    0.250095587650435    0.249898943747643    -128.712921286078    0.390696666932285    0.275679135108989 
3 1 -0.000394978283608144    0.499509343598675 0.000377732044976416    0.233417588106622   0.0150117004745258  -0.0231487825096435 
4 1    0.249448264113871    0.750459544981823    0.250184710513413    0.147939070929659  -0.0166804597070501  0.00804084600695243 
5 1    0.499758693156288 -0.000466550988278414 -4.45201122777782e-005   -0.697254034628156    -2.13674376391862    -2.15317045362181 
6 1    0.788259638250725    0.249421396657681    0.249371958858983     130.891879061674    -0.37336009690077   -0.277737997325726 
7 1    0.499871264859323    0.500095019268542  -0.0004148699387009   -0.710875756794127      2.1598098876835    -2.14086361572827 
8 1    0.749818480268823    0.750093074167353    0.249618864215048   -0.203400896583129  -0.0110265346605781   0.0313668485211856 
9 1 -0.000121569852128521 0.000371419075690937    0.500439530428129    0.215760348250765  -0.0143065636718783  -0.0152811985829286 
10 1    0.250461877859081    0.250106977161749    0.750158960731112   0.0932559650496848  0.00142305551055457  0.00148555628496416 
11 1 6.67685188461503e-005    0.499977366002895    0.499825879733903     0.20010252895376 -0.00263922711976106  0.00808650683613112 
12 1    0.249967659362061    0.750409853815427    0.750240816788673  -0.0165643456290402  -0.0280334933248594  -0.0214059198122742 
13 1    0.500446709663943 0.000507421611132486    0.500117279016938   -0.727353880045817    -2.20009089106573      2.1621778540777 
14 1    0.750034500830657    0.249746432962297    0.749745399812381   -0.199684403652794   0.0154384710667854   0.0237924637670585 
15 1     0.50025076681377    0.500124318566577    0.499880703245528   -0.717318598882973     2.18181042560484     2.16576022383325 
16 1    0.750232086976512    0.750021747592314    0.750266445678452 -0.00602050248675168 -0.00838934692247144  -0.0198527457508063 
ITEM: TIMESTEP
3
ITEM: NUMBER OF ATOMS
16
ITEM: BOX BOUNDS pp pp pp
0.0000000000000000e+000 5.7400000000000002e+000
0.0000000000000000e+000 5.7400000000000002e+000
0.0000000000000000e+000 5.7400000000000002e+000
ITEM: ATOMS id type xsu ysu zsu fx fy fz 
1 1 9.48034951674263e-005 -0.000663260268595423  0.00046696222468263    0.348155346905984   -0.187643486693618   -0.259405546700116 
2 1    0.535784328161599    0.250155201535222    0.249873101188755    -33.0570637804972    0.122251182270597 -0.00512795501174369 
3 1 -0.000545577804912133    0.499309879423322  0.00053106702906255    0.378554053430548    0.245078371958544   -0.255264721951519 
4 1    0.249228534973233    0.750645544427243    0.250259979330294    0.271892927988324   -0.022928940542361   0.0112693990972328 
5 1     0.49962639422199 -0.000746860460196785 -0.000154038732915089   -0.370641605642767    -2.04921657025196    -2.07234305268082 
6 1    0.812896977341196    0.249166323053828    0.249101620967716     33.2708429472466  -0.0976070236066003  -0.0502856491367648 
7 1    0.499784223919653    0.500225259205763 -0.000674318675893851   -0.390558769803837     2.09338351376523    -2.06762999996698 
8 1    0.749737973600411     0.75013047816833    0.249465191866639   -0.255582833383971  -0.0154511619820791   0.0440330606810656 
9 1 -0.000161800575075087 0.000522503346360281    0.500616682293157    0.355194926223176    -0.24003759992791    0.200882378057288 
10 1    0.250651806826014    0.250150459269435    0.750223544051392    0.194795390704254  0.00205617602105317  0.00235593723535989 
11 1 0.000102474869186003     0.49996731854344    0.499754694419659    0.332902985111547    0.215592868627979    0.230580133631673 
12 1    0.249953806466178    0.750575299192406    0.750337858641423  -0.0135060933121203  -0.0392876790470593  -0.0300627606286736 
13 1     0.50059268901821 0.000620333466031298     0.50025671935045   -0.416763579611744    -2.17982116323966     2.12555391183491 
14 1    0.750041827853506    0.249644009755229    0.749642845990478   -0.250299884751582   0.0217489415616679   0.0319884337832975 
15 1    0.500317583923957    0.500267221460149    0.499924146331247   -0.401242592792265     2.14349277418417     2.12119785621924 
16 1    0.750326009458815    0.750030289882147    0.750373943723853  0.00332056218516241  -0.0116102030979924   -0.027741424463446 
ITEM: TIMESTEP
4
ITEM: NUMBER OF ATOMS
16
ITEM: BOX BOUNDS pp pp pp
0.0000000000000000e+000 5.7400000000000002e+000
0.0000000000000000e+000 5.7400000000000002e+000
0.0000000000000000e+000 5.7400000000000002e+000
ITEM: ATOMS id type xsu ysu zsu fx fy fz 
1 1 0.000132909976198567 -0.00082909611148807 0.000573537433284675    0.562739910417807   -0.503834190918682   -0.590783482325582 
2 1    0.514199281985052    0.250208911012692    0.249851146648132    -9.11749638820907   0.0328452167515991  -0.0890148659373168 
3 1 -0.000662184327624123    0.499148324723024 0.000653404018323493    0.604148432181725    0.578490891953778   -0.588600057341378 
4 1    0.249050619952818    0.750801899578278    0.250323822190053    0.367363767905168  -0.0324499516109576   0.0139985632417202 
5 1    0.499504441932705 -0.00104032506141039 -0.000303990369648026  -0.0981681503341468    -2.02505117426317    -2.05359082754894 
6 1    0.834615303609161    0.248948321151261    0.248872048651939     7.27088419335213   0.0159633909663493     0.10379989350412 
7 1    0.499699918558601     0.50039328445132 -0.000950686947619223   -0.121577036999546     2.08146634907192    -2.05024558944574 
8 1    0.749662929398355    0.750161619933579    0.249336707866435    -0.26649176843866   -0.019858494380837   0.0545776407685287 
9 1 -0.000185899388509234 0.000643363231915828    0.500771781088998    0.554558572468523   -0.540285090056059    0.495917014044885 
10 1    0.250817521112025    0.250187217093867    0.750278120521551    0.267034923839162  0.00264336407909542 -0.000316516754668601 
11 1 0.000141851532790307    0.499964821354183    0.499701010202263    0.514592056420267    0.487737663210365    0.506191009144948 
12 1    0.249941739197836    0.750713851830142    0.750418931793921  -0.0123171137470022   -0.048689392254918  -0.0373368615333446 
13 1    0.500704335502501 0.000655139856348796    0.500433402941519   -0.147971608570271    -2.18457749270247      2.1164817843334 
14 1     0.75004106566244    0.249558163778033     0.74955717394285   -0.259704375851349   0.0269959178403546   0.0377421390624564 
15 1    0.500362844836375     0.50044732545291    0.500019683244058   -0.131719596220305     2.14279361757623     2.11543328903431 
16 1    0.750405376208403    0.750037177725176     0.75046390677394    0.014124181785565  -0.0141906252625932  -0.0342531322473978 
ITEM: TIMESTEP
5
ITEM: NUMBER OF ATOMS
16
ITEM: BOX BOUNDS pp pp pp
0.0000000000000000e+000 5.7400000000000002e+000
0.0000000000000000e+000 5.7400000000000002e+000
0.0000000000000000e+000 5.7400000000000002e+000
ITEM: ATOMS id type xsu ysu zsu fx fy fz 
1 1  0.00018030333806261 -0.000981607811752383 0.000646282422046883    0.787548627647964    -0.86401578296659   -0.962261327058486 
2 1    0.495908372305753    0.250254704431768     0.24983033958282    -3.55261623102004  0.00599687622707031    -0.11322208021497 
3 1 -0.000742943428538135    0.499029292758337 0.000739381736823307    0.837433046395178     0.95161427790253   -0.959658992787588 
4 1    0.248912082461698    0.750931671916192     0.25037756357588    0.411034352470266  -0.0385106051440042   0.0162978655671759 
5 1    0.499399812045096 -0.00134152582057823 -0.000486043208540275    0.134819873707915     -1.9381400862618    -1.97141990171904 
6 1    0.852966580660835    0.248766574018191    0.248683058614326   -0.219653854215468   0.0702184225694009    0.201306075713226 
7 1    0.499626104166341    0.500591211864617 -0.00123829605078839     0.11062039335231     2.00304764892137    -1.96720888957181 
8 1    0.749592851097594      0.7501870970342    0.249230839289195   -0.244327998955753  -0.0240670630890027   0.0631868192599122 
9 1 -0.000190718154092685 0.000729441328303437    0.500915100911813    0.768168840603232   -0.881853918274089    0.836317569656614 
10 1    0.250963389059663    0.250218009306764    0.750323722327305    0.292671847739845  0.00315266122706535 -0.00152252214198874 
11 1 0.000188976205848921     0.49997620936665    0.499670130102109    0.713941002292449    0.800708837138687    0.821851839988414 
12 1    0.249931314071135    0.750828297628573    0.750485654581223  -0.0134945145224086  -0.0561832718183661  -0.0431541242765912 
13 1    0.500793552421677 0.000623873835934319    0.500639533679806   0.0827718288127195    -2.11778008160579     2.03785961943667 
14 1    0.750033253709937    0.249487166559902    0.749486618971904   -0.236110136876498   0.0312581617642165   0.0417317763630338 
15 1    0.500397031125842    0.500657041612726     0.50015796925783     0.10187698225094      2.0707678410116     2.03943391779291 
16 1    0.750472094662276     0.75004254197006    0.750538144206248   0.0253159403173529  -0.0162139176022906  -0.0395376460074717 
ITEM: TIMESTEP
6
ITEM: NUMBER OF ATOMS
16
ITEM: BOX BOUNDS pp pp pp
0.0000000000000000e+000 5.7400000000000002e+000
0.0000000000000000e+000 5.7400000000000002e+000
0.0000000000000000e+000 5.7400000000000002e+000
ITEM: ATOMS id type xsu ysu zsu fx fy fz 
1 1  0.00024148837488559 -0.00113243110365602 0.000680314442170865    0.919736790980313    -1.11229658134758    -1.21966244022187 
2 1    0.480580045034515    0.250293000763236    0.249809891258206    -2.82675214650838 -0.00139272172913179   -0.114588838115993 
3 1 -0.000787091549029338    0.498956425176061 0.000784504065771874    0.976820497356129     1.20920876720803    -1.21501711585669 
4 1    0.248808063081683    0.751038667607645    0.250422762080039     0.40976964300631   -0.041098656644866   0.0181199256659837 
5 1    0.499316408151763 -0.00164578453239983 -0.000692008617273361      0.3325733163014    -1.80388961394268    -1.84141041988884 
6 1    0.868241128807736     0.24861717488966    0.248531244129323    -2.37581714104444   0.0759269139524242    0.190339228904055 
7 1    0.499567692032007    0.500811267942368 -0.00153203912759353    0.307986735925463     1.87465590626407    -1.83488666300475 
8 1    0.749527759846741    0.750207647310162    0.249144428215968   -0.197785324542346  -0.0279362473779527   0.0701249312083336 
9 1 -0.000173543254235243 0.000776793230443218    0.501057506416688    0.907944036317626    -1.14003011874773       1.094590527301 
10 1    0.251092921679389    0.250243736095968    0.750361651710259     0.27800953183247  0.00350375881252655 -0.00050997777692793 
11 1 0.000247907294041907    0.500007776713801    0.499667085106359     0.85855804240772     1.05993819765707     1.08315492558424 
12 1    0.249922261152418    0.750922043888636    0.750540022560188  -0.0168110490033673  -0.0622450745109887  -0.0479034251030507 
13 1    0.500870123893058 0.000539427634066669    0.500867380613103    0.277856765495616    -1.99628999022323     1.90620065238236 
14 1    0.750020236606608     0.24942891126932    0.749429020807732   -0.188255747169164   0.0346725161997553   0.0445421863949524 
15 1    0.500428307048161     0.50088878169106    0.500329367166057    0.299871831894893     1.94505856081546     1.91070036708213 
16 1    0.750528347549386    0.750046561423574    0.750598869173002   0.0362942167497582  -0.0177856163851721  -0.0437938645549443 
ITEM: TIMESTEP
7
ITEM: NUMBER OF ATOMS
16
ITEM: BOX BOUNDS pp pp pp
0.0000000000000000e+000 5.7400000000000002e+000
0.0000000000000000e+000 5.7400000000000002e+000
0.0000000000000000e+000 5.7400000000000002e+000
ITEM: ATOMS id type xsu ysu zsu fx fy fz 
1 1 0.000318523564174358 -0.00129030505001992 0.000675162174069888     0.97863445845952    -1.25358669590671    -1.36870748417665 
2 1    0.467591044118924    0.250325218089188    0.249789491097049    -2.83768280267794 -0.00292475672493193   -0.107289953037604 
3 1 -0.000797192855333021    0.498928577484662 0.000788821654812009      1.0430432002882     1.35868244215204    -1.36263657616885 
4 1    0.248731811754115    0.751127647613089    0.250461333924959    0.386063729348555  -0.0427692027813548   0.0195323926874521 
5 1    0.499255380324398 -0.00195206807472914 -0.000916542735279606    0.500025772637074    -1.64928164831682    -1.69061480609072 
6 1    0.881040586036202    0.248493445294343    0.248408652354652    -3.36897247418383    0.075828428939228    0.174016869211048 
7 1    0.499527032381681     0.50104859200917 -0.00183032506901714    0.474753667985469     1.72165521430026    -1.67847360110737 
8 1    0.749467451468572    0.750224181675549    0.249073590850864   -0.134271522780529  -0.0314331547200837   0.0757302963529013 
9 1 -0.000133903553199519 0.000785067825290753    0.501207799373867    0.973981812154475    -1.29141857371979     1.24578908350406 
10 1     0.25120973154542    0.250265502204456    0.750393584440669    0.243424655216412  0.00370982330054354 0.000544717324598862 
11 1 0.000321347795916153    0.500063752982101    0.499694552065342    0.930641082470801     1.21512919168509     1.24000680641936 
12 1    0.249914170024366    0.750999277956566    0.750584487029292  -0.0208355389815531  -0.0672353499304215  -0.0518419151321224 
13 1     0.50094232181316 0.000412951574503495     0.50111214131523    0.441567089673239    -1.84741548709346     1.74857113070723 
14 1    0.750004053060623    0.249380805783403    0.749381742448896   -0.123560243692514   0.0374166499357724   0.0465724052639803 
15 1    0.500462964172387    0.501137898860293    0.500526707175377    0.466320481114543     1.79265440335643     1.75603490752404 
16 1    0.750576734097723    0.750049453772135    0.750648801899218   0.0468666329680792  -0.0190112844757741  -0.0472342732813495 
ITEM: TIMESTEP
8
ITEM: NUMBER OF ATOMS
16
ITEM: BOX BOUNDS pp pp pp
0.0000000000000000e+000 5.7400000000000002e+000
0.0000000000000000e+000 5.7400000000000002e+000
0.0000000000000000e+000 5.7400000000000002e+000
ITEM: ATOMS id type xsu ysu zsu fx fy fz 
1 1 0.000411506087096881 -0.00145989205287833 0.000632603048806697    0.998201743690893    -1.32819083192132    -1.44997534172098 
2 1    0.456435162278737    0.250352610813252    0.249769102556046    -3.19126629164476  0.00602782684745794  -0.0234700868684638 
3 1 -0.000776722570345907    0.498942715376529 0.000754507513363884     1.06849308641285     1.43989256611022    -1.44233647743401 
4 1    0.248677551272341    0.751202335360745    0.250494771854046    0.353158971401144  -0.0437968681874087   0.0206057773043774 
5 1    0.499217279878898 -0.00225924941094036  -0.0011551623728822    0.646217788193946    -1.56175136755474    -1.60603455301698 
6 1    0.891861760981954    0.248390045636256    0.248308960917465    -3.74225711237006   0.0689219481629451    0.158013950850208 
7 1    0.499505596808765    0.501298984192772 -0.00213150020982595    0.614350797470838     1.61872209139326    -1.57270552600609 
8 1     0.74941227765292     0.75023740535562    0.249015293872155  -0.0649408445965753  -0.0341444420826144   0.0802860043206577 
9 1 -7.29408758716965e-005 0.000756113998022556    0.501370704033117    0.999638870672478    -1.37555350669804     1.32941416171148 
10 1    0.251316132330903    0.250284167343807    0.750420831211233    0.201645680371871  0.00380013578111049  0.00153483281564643 
11 1 0.000409926583592864    0.500145371363828    0.499752551982751    0.961688746103768     1.30278392328095     1.32899980989521 
12 1    0.249906689092012    0.751063266788151    0.750620959849409  -0.0246592462859793  -0.0713866834748608  -0.0551307730307371 
13 1    0.501016203492952  0.00025358158131894    0.501369625839851    0.576310886571522    -1.71030668830933     1.60409109821146 
14 1    0.749986806678295    0.249340825740774    0.749342723064669  -0.0539688997535437   0.0396552377922981   0.0497193474567088 
15 1    0.500505522056393    0.501400327720148    0.500743960421649    0.600409977673908     1.66529768308797     1.62701374687265 
16 1    0.750619304000485    0.750051390192652    0.750690066418147   0.0569758460877056  -0.0199710242278879  -0.0500259713611251 
ITEM: TIMESTEP
9
ITEM: NUMBER OF ATOMS
16
ITEM: BOX BOUNDS pp pp pp
0.0000000000000000e+000 5.7400000000000002e+000
0.0000000000000000e+000 5.7400000000000002e+000
0.0000000000000000e+000 5.7400000000000002e+000
ITEM: ATOMS id type xsu ysu zsu fx fy fz 
1 1 0.000519682124370566 -0.00164338807758213 0.000555253121448565    0.999864992349634    -1.36754308844963    -1.49499933266083 
2 1    0.446723918949439    0.250376405614361    0.249750859852174    -3.56690617295687   0.0063432811501139  -0.0265102194766018 
3 1 -0.000729117028653248     0.49899526976651 0.000684482888371162     1.07234478671425     1.48467481852526    -1.48588972177712 
4 1    0.248640651531295    0.751265524851647    0.250524189183974    0.317539571897997  -0.0442892944206209   0.0213997654154023 
5 1    0.499202532475739 -0.00256796538974413 -0.00140598612356344    0.757410129767283    -1.48844310917679    -1.53523873725352 
6 1    0.901089975407387    0.248302796790881    0.248227407638262    -3.87727897515139   0.0589204184964687    0.143053979712628 
7 1    0.499504329381574    0.501560317234521 -0.00243534297823892    0.721414451699651     1.55095852217231    -1.50251209877407 
8 1    0.749362870700341    0.750247853513656    0.248967263991231 -0.00187650256255213  -0.0357452637494257   0.0840205718212394 
9 1 7.6587783113671e-006 0.000692584516855277     0.50154847092087     1.00728668506769    -1.42287292093173     1.37602008405658 
10 1     0.25141355370511    0.250300372282823    0.750444374189279    0.158860913611617  0.00379848678741689  0.00243909245411074 
11 1 0.000513280989982697    0.500252283526947    0.499839828392515    0.971737352347254      1.3543132338589     1.38161499217907 
12 1    0.249899545686432    0.751116455262945    0.750650871809987  -0.0277800325950524  -0.0748675001160914  -0.0579129234135104 
13 1     0.50109607958379 6.81867519460866e-005     0.50163666581444    0.685743837281049    -1.64583258137895     1.53389393251669 
14 1    0.749970419150412    0.249307455065832    0.749310463044362  0.00918620917350364   0.0415253153754842   0.0526691959621564 
15 1    0.500559057319535    0.501673347754718    0.500976944014117    0.705780965645155     1.59978460295351     1.56027460505015 
16 1    0.750657616994064    0.750052500533911    0.750724254240771   0.0666717877107774  -0.0207249210962127  -0.0523231858123665 
ITEM: TIMESTEP
10
ITEM: NUMBER OF ATOMS
16
ITEM: BOX BOUNDS pp pp pp
0.0000000000000000e+000 5.7400000000000002e+000
0.0000000000000000e+000 5.7400000000000002e+000
0.0000000000000000e+000 5.7400000000000002e+000
ITEM: ATOMS id type xsu ysu zsu fx fy fz 
1 1 0.000642095831036735 -0.00184178349167041 0.000445753889812835    0.979647519262654    -1.39289542968405    -1.52505549574124 
2 1    0.438161998445139    0.250397316815679    0.249734218264013    -3.80462005718589  0.00529147979301546   -0.027120336802019 
3 1 -0.00065743751041432    0.499082873725342 0.000581622791913462     1.05342306729654      1.5149511595862    -1.51515589433003 
4 1    0.248617443450822    0.751319334917639    0.250550423365833    0.281979114040932  -0.0443709693484583    0.021959421611278 
5 1    0.499211013966901 -0.00287887062830805  -0.0016677674195081    0.839815450994736    -1.41990094506784    -1.46888923434306 
6 1    0.909021378788311     0.24822843572008     0.24816037860824    -3.93504879424846   0.0463109137939027    0.127856693870061 
7 1    0.499523542309179    0.501831698057231 -0.00274239838480453    0.800229097399668      1.4875744556478     -1.4369605053989 
8 1    0.749319769273463    0.750255950361179    0.248927781540468   0.0545987717405549  -0.0345509496714921   0.0870790975231644 
9 1 0.000106254032014333 0.000597158425421185    0.501742113241185    0.992695694187728    -1.45478575653918     1.40715301557075 
10 1    0.251502911552819    0.250314598721957    0.750464956021822    0.117634341643844  0.00372552974260906  0.00331646136198895 
11 1 0.000630701419629746    0.500383578362403      0.4999547833778    0.958000171072366     1.39042021324653     1.41861256200606 
12 1    0.249892539222666    0.751160690206575    0.750675303277856  -0.0299584123007039  -0.0778187617620922    -0.06028973349849 
13 1    0.501184988759085 -0.000139700588363212    0.501912538531249    0.766775362313409    -1.58376553167874     1.46716994966696 
14 1     0.74995639930936    0.249279548473737    0.749283838018291    0.065683718904021   0.0431040861938193   0.0568561208802167 
15 1    0.500625579878189    0.501956286617656    0.501223886158374    0.783082599769866     1.53802424015199     1.49768072396257 
16 1    0.750692877020927      0.7500528843035    0.750752568717455   0.0760623551087331   -0.021313734404024   -0.054212846339303 
ITEM: TIMESTEP
11
ITEM: NUMBER OF ATOMS
16
ITEM: BOX BOUNDS pp pp pp
0.0000000000000000e+000 5.7400000000000002e+000
0.0000000000000000e+000 5.7400000000000002e+000
0.0000000000000000e+000 5.7400000000000002e+000
ITEM: ATOMS id type xsu ysu zsu fx fy fz 
1 1 0.000777430263072162 -0.00205560968532836 0.000306348775797398    0.946147614732859     -1.4096275905318    -1.54568340834592 
2 1    0.430526628221949    0.250415851908542    0.249718819712743    -3.88369600664625  0.00433536351127019  -0.0271474208124275 
3 1 -0.000564622802879084    0.499202742418674 0.000448334885561925     1.02086364821643     1.53594467155616    -1.53528812468737 
4 1    0.248605013522027    0.751365390622482    0.250574109906381    0.248164783788948   -0.044233027914767   0.0223183735083941 
5 1    0.499242222760073 -0.00319238090224871 -0.00193947268535873    0.899383243584894    -1.35326752746478    -1.40418197780112 
6 1    0.915883494948831    0.248164366132414    0.248105061745231    -3.99861845304238   0.0337140817535487     0.11442505944947 
7 1    0.499563066755557    0.502112371826684 -0.00305300630940724    0.856714075234287     1.42572647234234     -1.3731706119531 
8 1    0.749283418026809     0.75026209205646    0.248895530762988    0.104761213521983  -0.0323882169513661   0.0895737561482681 
9 1 0.000221015956371765 0.000472114000558577    0.501952163678632    0.964009392225024    -1.47700200134574     1.42857343450436 
10 1    0.251584803244534    0.250327212184175    0.750483145670978   0.0792511747975986  0.00359664700378619  0.00404244686757034 
11 1 0.000761033456036456    0.500538338726983    0.500095974842259    0.929776816342316      1.4162240290556     1.44514300255923 
12 1    0.249885531749063    0.751197381348106    0.750695078667097  -0.0311301410957132  -0.0803958551001909  -0.0624201066789548 
13 1    0.501284845039274 -0.000367270430672306     0.50219658455852    0.825409760845898    -1.52258072385748     1.40220504882866 
14 1     0.74994593053017    0.249256231657569    0.749262036910359    0.115550319071887   0.0444481071729967   0.0609335513893982 
15 1    0.500706214715563    0.502248549213391    0.501483358905434    0.838196182273412     1.47727164408187     1.43643856931119 
16 1    0.750726029362677    0.750052618922496    0.750775929972784    0.085216376148813  -0.0217660733114524  -0.0557615922876611 
ITEM: TIMESTEP
12
ITEM: NUMBER OF ATOMS
16
ITEM: BOX BOUNDS pp pp pp
0.0000000000000000e+000 5.7400000000000002e+000
0.0000000000000000e+000 5.7400000000000002e+000
0.0000000000000000e+000 5.7400000000000002e+000
ITEM: ATOMS id type xsu ysu zsu fx fy fz 
1 1  0.00092423173237452 -0.00228513294439381 0.000138919873113842    0.905316901577568    -1.42054915292174    -1.55976844260857 
2 1    0.423649422290505    0.250432401969761    0.249704401862857    -3.91308898379534  0.00316987431487623  -0.0268490472690217 
3 1 -0.000453383988067491    0.499352580427171  0.00028662254793523    0.980647993738337     1.55051307979669    -1.54909833148048 
4 1    0.248601042269998    0.751404952446705    0.250595736016082     0.21699629666746  -0.0439383689862887   0.0225016012694269 
5 1    0.499295413853626  -0.0035086506272819 -0.00222013749969052    0.940610009469107    -1.28668107031918    -1.33931946057718 
6 1    0.921851628918623    0.248108540636053    0.248059284712984    -4.00377816507158    0.022373441476836    0.103303633428877 
7 1    0.499622416414064    0.502401596713298 -0.00336726879880989    0.895310196549048     1.36357636320789     -1.3092750884664 
8 1    0.749254175201222    0.750266615777946    0.248869490891827     0.14915634051795  -0.0302180695459443   0.0915878075551919 
9 1 0.000350091813263999 0.000319362202276352    0.502178878458548    0.927278373139285     -1.4923646044004     1.44315487102197 
10 1    0.251659630711613    0.250338493145705    0.750499381262528    0.044444003285033  0.00342164138963973  0.00461380021676486 