LAMMPS (16 Mar 2018)
OMP_NUM_THREADS environment is not set. Defaulting to 1 thread. (../comm.cpp:90)
  using 1 OpenMP thread(s) per MPI task
units metal
dimension 3
boundary p p p
atom_style atomic
read_data structure.inp
  orthogonal box = (0 0 0) to (5.74 5.74 5.74)
  1 by 1 by 1 MPI processor grid
  reading atoms ...
  16 atoms
include potential.inp
pair_style eam/alloy
pair_coeff * * Fe-C-Bec07.eam Fe C
fix ensemble all nvt temp 30.0 30.0 0.1
variable dumptime  equal 1
dump 1 all custom ${dumptime} dump.out id type xsu ysu zsu fx fy fz
dump 1 all custom 1 dump.out id type xsu ysu zsu fx fy fz
dump_modify 1 sort id format line "%d %d %20.15g %20.15g %20.15g %20.15g %20.15g %20.15g"
thermo_style custom step temp pe etotal pxx pxy pxz pyy pyz pzz vol
thermo_modify format float %20.15g
thermo 1
timestep 0.001
velocity all create 60.0 30064 dist gaussian
run 50
Neighbor list info ...
  update every 1 steps, delay 10 steps, check yes
  max neighbors/atom: 2000, page size: 100000
  master list distance cutoff = 7.3
  ghost atom cutoff = 7.3
  binsize = 3.65, bins = 2 2 2
  1 neighbor lists, perpetual/occasional/extra = 1 0 0
  (1) pair eam/alloy, perpetual
      attributes: half, newton on
      pair build: half/bin/atomonly/newton
      stencil: half/bin/3d/newton
      bin: standard
Per MPI rank memory allocation (min/avg/max) = 4.228 | 4.228 | 4.228 Mbytes
Step Temp PotEng TotEng Pxx Pxy Pxz Pyy Pyz Pzz Volume 
       0                   60     134.693657384278     134.809991514778       6498947.904226     153.725047051134    -71.8005621737768     151163.564847592     151.594092961171     150945.423672252           189.119224 
       1     37014.0323465823     40.5655803956407      112.33216821795     4959799.75658498    -17459.1513140471    -13829.8472104502     106273.424591714     121.396683104049      106050.07188523           189.119224 
       2     60863.8520198942     -32.919209047833      85.089846012418     3415716.59595792    -17863.9941879453    -13831.5860533463      74065.919309331       154.0902978041     73778.6384061601           189.119224 
       3     52016.3493778592    -53.1957866521085     47.6588262921827      2129586.8928564    -12788.5451051515    -9723.00082149237     73418.0234199286    -163.486481370847     73065.0604984946           189.119224 
       4     39180.4774895456    -57.7406158681856     18.2264971538328     1389085.02569118    -9035.95204137796    -6961.83891586014     83460.1608849066    -571.219621479856     83196.5947592147           189.119224 
       5     27538.9540947623    -58.6699499437529    -5.27461195219313     907880.856531263    -6162.53047403806    -4832.06004147041      95697.630495337    -953.027149663757     95611.9225666785           189.119224 
       6     19372.8208310848    -58.8779379881781    -21.3159335429023     604223.985803326    -4031.10467175027    -2875.87354697206     102511.796499483    -931.158585397452     102651.609242388           189.119224 
       7     13928.3666789655    -58.8849838604287    -31.8792434123849     395299.591242646    -2529.93369158032    -1548.72208370983     103818.036849275    -836.277216533269      104166.79048711           189.119224 
       8     10246.1134432646     -58.880536780548    -39.0143251401056     250166.659933479    -1586.73164384607    -785.739659421628      104054.76654358    -387.707991531655     104555.216120957           189.119224 
       9     7708.46541842151    -58.8934194122538    -43.9474590465641     153463.019942767    -1011.98375112444    -108.609397326858      104667.34606266    -331.767236858521     105290.036947829           189.119224 
      10     5922.04074429578    -58.9280275616199    -47.4457698820662     90027.0421280418    -648.931861988098     389.752691393327     104765.696345537    -270.308013402554     105478.221130067           189.119224 
      11     4636.21143567849    -58.9731053573881    -49.9839449209912     47014.4548669931    -403.935123097586     770.081903220097     104559.899995213    -220.549979349253     105356.742210904           189.119224 
      12     3691.93305177855    -59.0248962032627    -51.8665991792148     16523.0091971384    -241.868067478999     1060.94890419256     104127.032060831    -181.792905696663     104993.193470023           189.119224 
      13     2986.66063133144    -59.0823866868557    -53.2915438927803    -5724.02154609578    -135.763120346834     1286.34174210055     103490.822683648    -152.591994467861     104413.182992859           189.119224 
      14     2451.63007232153    -59.1440271339851    -54.3905562544655     -22016.155479486    -67.4648581724627     1461.80112617926     102660.526161761    -131.914275322908     103628.209324144           189.119224 
      15     2039.90335299443    -59.2080934834904    -55.2529204355797    -33545.5058862597    -25.9020235984576     1598.87753289425     101637.164918938    -119.370137094767     102640.675078677           189.119224 
      16     1719.21656482884    -59.2741659102402    -55.9407731733975    -41071.6296738644     -6.8244594386169     1698.74121678864     100418.972706585    -113.367082969104     101439.282865828           189.119224 
      17      1467.0094310935    -59.3424625356773    -56.4980747589846    -45711.6243208858    -9.83630332848685     1768.34863012621     98988.7533070178    -112.365207158704     100010.671686219           189.119224 
      18     1266.80217318736    -59.4126974090066    -56.9564919201189    -47954.0065875721    -24.0447277641042      1817.2471841417     97335.7600160529    -115.533592737237     98348.7823235698           189.119224 
      19     1106.11986687584    -59.4834797680139    -57.3388215523177    -47897.4600863934    -41.1409793985805     1850.07911585992     95458.8856060401    -122.241814519853      96459.597519605           189.119224 
      20     975.546946144169    -59.5533239528265     -57.661833857133     -46168.158625268    -50.2528738986664     1869.99837013711     93357.8906808288    -132.676062089181     94345.3678000364           189.119224 
      21     868.180081215512    -59.6212169551612    -57.9379007074008    -43473.2008100657    -25.6872538404651      1870.2060540841     91019.5591784353    -147.426602314357     91992.9140490426           189.119224 
      22     778.967683129381    -59.6867399817195    -58.1763978466453    -40345.7449212706     12.4264386263364     1847.93221243994     88411.6109011373    -169.907831712187     89370.1515364973           189.119224 
      23      704.07701423594    -59.7495845904232    -58.3844481361536    -37163.0186235447     40.7445663122088     1811.75327348753     85564.1881914971    -183.415031344234     86505.6245483932           189.119224 
      24     640.572351909715    -59.8094616404731    -58.5674545141105     -34075.259961752     53.5077598583807     1760.48366208921      82776.919089698    -174.151229159786     83700.1646655832           189.119224 
      25     586.288960262503    -59.8664769451299    -58.7297200048984    -31111.8543505086     61.9890396661358     1708.87289365129     80181.4834069479     -167.69575470876     81087.3042765225           189.119224 
      26     539.597711663185    -59.9208626479187      -58.87463547115    -28284.2653257871     67.9319866032644     1657.66507325883     77768.7744876812    -163.859192185338     78658.6988527825           189.119224 
      27     499.222559443124    -59.9728697074453     -59.004926001132    -25614.3878903244     74.0027163654824     1605.26850761056     75523.8802521732    -163.390766688415     76399.2505521253           189.119224 
      28     464.150918854045    -60.0227483767085    -59.1228051506141    -23105.9756452057     77.1423725652798     1553.87061478052     73433.9945851666    -165.059970054082      74296.210392989           189.119224 
      29     433.537826840662    -60.0707069740489    -59.2301195386427    -20582.0787118299      78.615586364768     1504.76668691622     71487.0986003268    -168.426833958455     72335.9248187753           189.119224 
      30     406.622249303239    -60.1167137718909    -59.3283130083134    -17767.8858494019     80.9787552453641     1459.03360581317     69668.3532156183     -173.28925586262     70503.3198034518           189.119224 
      31     382.775574959929    -60.1607609507927     -59.418596555966    -14762.7672457615     83.8709035506925     1416.20366651274     67963.8816416728    -179.359694051895     68784.8740937039           189.119224 
      32     361.542597632591    -60.2029709653281    -59.5019752364231    -11657.6150672362     86.6957116589474     1375.88122547753     66357.4061736513    -186.361525578474     67164.6603103207           189.119224 
      33     342.596344847393    -60.2435583971237    -59.5792975989521    -8528.33946166638     88.9802606949142     1337.43777524945     64832.2399056276     -194.11994889545     65626.0280207209           189.119224 
      34     325.702052974932    -60.2827988301109    -59.6512944111958    -5438.60693577624     90.2157864908108     1300.38523930651     63371.2216161746      -203.1366681959     64151.5533648042           189.119224 
      35     310.689662209073    -60.3210030929785    -59.7186062311713    -2442.27284380497     90.1179195542493     1264.40894326159     61956.0979258557    -213.577666984464     62722.5100586915           189.119224 
      36     297.433722193301    -60.3584975383336    -59.7818026474547     420.813788665007      87.211085575001     1229.27146040123     60571.2646536121    -224.162453408551     61327.8535868284           189.119224 
      37     285.839141082383    -60.3956119815937    -59.8413978492489     3061.41133021872      84.175745446815     1190.66240762851     59184.6748253734    -240.026355400291     59932.3758004031           189.119224 
      38     275.822420805965    -60.4326553119411    -59.8978626203266     5342.78312315344     79.8177076538118     1148.09733264261      57722.337284314    -258.654232662647     58462.7802232057           189.119224 
      39     267.294743012233    -60.4698789766524    -59.9516206180599     7295.98921515912     71.3469426019076     1104.17330820746     56183.9670166423    -275.321721690437      56921.304802314           189.119224 
      40      260.16054748582    -60.5074826427937    -60.0030567914242     8953.93325565974     58.3599925613454     1058.87724158243     54572.5942663887    -290.578002217743      55306.447660272           189.119224 
      41     254.321709982885    -60.5456233581959    -60.0525184415604     10340.0435575808     41.7698668744303       1012.670270065     52893.1719310976    -304.000299983839     53623.8783393403           189.119224 
      42     249.680337149548    -60.5844246686815    -60.1003189199276     11475.4050868754     20.4780030314051     967.235686084955     51149.9003130589     -314.45576817566     51877.1351856206           189.119224 
      43     246.139678678974    -60.6239804760456    -60.1467397177011     12375.3067365127    -5.36251946479159       921.2503761084     49341.4234260772    -323.417614057818     50064.7592671944           189.119224 
      44     243.605152888812    -60.6643595608224    -60.1920330000451     13049.7986278038      -35.03020595025     876.344402707591     47466.5485061194     -329.58573967166     48185.3272600134           189.119224 
      45     241.985451874148    -60.7056104599141    -60.2364243409569      13506.005461323    -68.4810251674387     833.081048299076     45525.5563929983    -333.020761148945     46238.1508884615           189.119224 
      46     241.192574245954    -60.7477642771875    -60.2801154703882     13754.6116630008    -100.999957779018     786.852273631829      43518.178305081    -336.340337065915     44222.7824687542           189.119224 
      47     241.140198549787    -60.7908327107518    -60.3232854553037     13807.6972761602    -124.825955076695     740.577904768968     41448.0815043905    -338.647503745642     42144.4321907625           189.119224 
      48     241.743387675554     -60.834808977757     -60.366092197601     13667.1318760103    -135.501493818091     697.287589213439     39316.9981432093    -337.158194095266     40003.2417482133           189.119224 
      49      242.91725901145    -60.8796685714365    -60.4086757695941     13348.9768227951    -141.136916902764     656.004871070251     37132.0641569125    -333.123868135404     37807.7468717705           189.119224 
      50     244.576779037162    -60.9253652823176    -60.4511548334879     12863.7998417684    -143.063592686079     622.284426728634     34920.7763165076    -306.697270120285     35584.1394529033           189.119224 
Loop time of 0.0156 on 1 procs for 50 steps with 16 atoms

Performance: 276.924 ns/day, 0.087 hours/ns, 3205.135 timesteps/s
100.0% CPU use with 1 MPI tasks x 1 OpenMP threads

MPI task timing breakdown:
Section |  min time  |  avg time  |  max time  |%varavg| %total
---------------------------------------------------------------
Pair    | 0          | 0          | 0          |   0.0 |  0.00
Neigh   | 0          | 0          | 0          |   0.0 |  0.00
Comm    | 0          | 0          | 0          |   0.0 |  0.00
Output  | 0.0156     | 0.0156     | 0.0156     |   0.0 |100.00
Modify  | 0          | 0          | 0          |   0.0 |  0.00
Other   |            | 0          |            |       |  0.00

Nlocal:    16 ave 16 max 16 min
Histogram: 1 0 0 0 0 0 0 0 0 0
Nghost:    823 ave 823 max 823 min
Histogram: 1 0 0 0 0 0 0 0 0 0
Neighs:    1072 ave 1072 max 1072 min
Histogram: 1 0 0 0 0 0 0 0 0 0

Total # of neighbors = 1072
Ave neighs/atom = 67
Neighbor list builds = 1
Dangerous builds = 0
Total wall time: 0:00:00
