Start File for LAMMPS
16 atoms
2 atom types

0. 5.740000000000000 xlo xhi
0. 5.740000000000000 ylo yhi
0. 5.740000000000000 zlo zhi

Masses

1 55.845000
2 1.000000

Atoms

1 1 0.000000000000000 0.000000000000000 0.000000000000000
2 1 3.435000000000000 1.435000000000000 1.435000000000000
3 1 0.000000000000000 2.870000000000000 0.000000000000000
4 1 1.435000000000000 4.305000000000000 1.435000000000000
5 1 2.870000000000000 0.000000000000000 0.000000000000000
6 1 4.305000000000000 1.435000000000000 1.435000000000000
7 1 2.870000000000000 2.870000000000000 0.000000000000000
8 1 4.305000000000000 4.305000000000000 1.435000000000000
9 1 0.000000000000000 0.000000000000000 2.870000000000000
10 1 1.435000000000000 1.435000000000000 4.305000000000000
11 1 0.000000000000001 2.870000000000000 2.870000000000000
12 1 1.435000000000001 4.305000000000000 4.305000000000000
13 1 2.870000000000000 0.000000000000000 2.870000000000000
14 1 4.305000000000000 1.435000000000000 4.305000000000000
15 1 2.870000000000000 2.870000000000000 2.870000000000000
16 1 4.305000000000000 4.305000000000000 4.305000000000000

